                               Psi4 1.9.1 release

  ==> Input File <==

--------------------------------------------------------------------------

molecule acnit {
  C    0.000000    0.000000    0.000000
  C    0.056130    0.023070    1.447480
  N    0.101910    0.043860    2.594820
  H    0.235630   -0.997960   -0.368840
  H    0.720430    0.707160   -0.412730
  H   -0.998390    0.275760   -0.339710
}

set {
basis def2-SVP
}

grad, wfn = energy('pbe0', return_wfn=True)

fw = core.FCHKWriter(wfn)
fchkfile = 'molecule' + '.fchk'
fw.write(fchkfile)

--------------------------------------------------------------------------

    Molecular point group: c1

    Geometry (in Angstrom), charge = 0, multiplicity = 1:

       Center              X                  Y                   Z               Mass
    ------------   -----------------  -----------------  -----------------  -----------------
         C           -0.050161470640    -0.021348545187    -1.281491219416    12.000000000000
         C            0.005968529360     0.001721454813     0.165988780584    12.000000000000
         N            0.051748529360     0.022511454813     1.313328780584    14.003074004430
         H            0.185468529360    -1.019308545187    -1.650331219416     1.007825032230
         H            0.670268529360     0.685811454813    -1.694221219416     1.007825032230
         H           -1.048551470640     0.254411454813    -1.621201219416     1.007825032230

  Charge       = 0
  Multiplicity = 1
  Basis Set: DEF2-SVP
    Blend: DEF2-SVP
  Basis Set: (DEF2-SVP AUX)
    Blend: DEF2-UNIVERSAL-JKFIT

    Orbital Energies [Eh]
    ---------------------

    Doubly Occupied:

       1A    -14.385504     2A    -10.285901     3A    -10.273822
       4A     -0.924795     5A     -0.795568     6A     -0.530049
       7A     -0.480534     8A     -0.480322     9A     -0.371396
      10A     -0.345393    11A     -0.345335

  @DF-RKS Final Energy:  -132.49170518400283

   => Energetics <=

    Nuclear Repulsion Energy =             58.7844411568329264
    One-Electron Energy =                -294.0077082181362584
    Two-Electron Energy =                 116.8726591846288443
    DFT Exchange-Correlation Energy =     -14.1410973073283515
    Empirical Dispersion Energy =           0.0000000000000000
    VV10 Nonlocal Energy =                  0.0000000000000000
    Total Energy =                       -132.4917051840028250
 Dipole X            :          0.1222262           -0.1809079           -0.0586818
 Dipole Y            :          0.0492469           -0.0742058           -0.0249588
 Dipole Z            :          3.1596946           -4.6590571           -1.4993625
 Magnitude           :                                                    1.5007180
*** Psi4 exiting successfully. Buy a developer a beer!
